============================== echo of input deck ==============================
echo

start h2o-uv-vis

title h2o-uv-vis

geometry
 O     0.00000000     0.00000000     0.12982363
 H     0.75933475     0.00000000    -0.46621158
 H    -0.75933475     0.00000000    -0.46621158
end

basis
 O library 6-31G**
 H library 6-31G**
end

dft
 xc b3lyp
end

tddft
 nroots 10
 notriplet
end

task tddft energy
================================================================================

 Output coordinates in angstroms (scale by  1.889725989 to convert to a.u.)

  No.       Tag          Charge          X              Y              Z
 ---- ---------------- ---------- -------------- -------------- --------------
    1 O                    8.0000     0.00000000     0.00000000     0.11920704
    2 H                    1.0000     0.75933475     0.00000000    -0.47682817
    3 H                    1.0000    -0.75933475     0.00000000    -0.47682817

         Total DFT energy =      -76.419737926632

                       DFT Final Molecular Orbital Analysis
                       ------------------------------------

 Vector    1  Occ=2.000000D+00  E=-1.913801D+01  Symmetry=a1

 Vector    2  Occ=2.000000D+00  E=-9.973144D-01  Symmetry=a1

 Vector    3  Occ=2.000000D+00  E=-5.149842D-01  Symmetry=b1

 Vector    4  Occ=2.000000D+00  E=-3.710239D-01  Symmetry=a1

 Vector    5  Occ=2.000000D+00  E=-2.919627D-01  Symmetry=b2

 Vector    6  Occ=0.000000D+00  E= 6.534607D-02  Symmetry=a1

 Vector    7  Occ=0.000000D+00  E= 1.512260D-01  Symmetry=b1

 Vector    8  Occ=0.000000D+00  E= 7.568468D-01  Symmetry=b1

 Vector    9  Occ=0.000000D+00  E= 8.055100D-01  Symmetry=a1

 Vector   10  Occ=0.000000D+00  E= 8.913501D-01  Symmetry=b2

 Vector   11  Occ=0.000000D+00  E= 8.935284D-01  Symmetry=a1

 Vector   12  Occ=0.000000D+00  E= 1.015566D+00  Symmetry=b1

 Vector   13  Occ=0.000000D+00  E= 1.175374D+00  Symmetry=a1

 Vector   14  Occ=0.000000D+00  E= 1.529509D+00  Symmetry=a2

 Vector   15  Occ=0.000000D+00  E= 1.537657D+00  Symmetry=a1

 Vector   16  Occ=0.000000D+00  E= 1.643631D+00  Symmetry=b2

 Vector   17  Occ=0.000000D+00  E= 2.238693D+00  Symmetry=a1

 Vector   18  Occ=0.000000D+00  E= 2.268206D+00  Symmetry=b1

 Vector   19  Occ=0.000000D+00  E= 2.450067D+00  Symmetry=b1

 Vector   20  Occ=0.000000D+00  E= 2.640993D+00  Symmetry=a2

 Vector   21  Occ=0.000000D+00  E= 2.666765D+00  Symmetry=b2

 Vector   22  Occ=0.000000D+00  E= 3.027840D+00  Symmetry=a1

 Vector   23  Occ=0.000000D+00  E= 3.307190D+00  Symmetry=a1

 Vector   24  Occ=0.000000D+00  E= 3.531537D+00  Symmetry=b1

 Vector   25  Occ=0.000000D+00  E= 3.692901D+00  Symmetry=a1

     Multipole analysis of the density
     ---------------------------------

     L   x y z        total         alpha         beta         nuclear
     -   - - -        -----         -----         ----         -------
     0   0 0 0     -0.000000     -5.000000     -5.000000     10.000000

     1   1 0 0      0.000000      0.000000      0.000000      0.000000
     1   0 1 0      0.000000      0.000000      0.000000      0.000000
     1   0 0 1     -0.803751     -0.401875     -0.401875      0.000000

     2   2 0 0     -3.194726     -3.656400     -3.656400      4.118075
     2   1 1 0      0.000000      0.000000      0.000000      0.000000
     2   1 0 1     -0.000000     -0.000000     -0.000000      0.000000
     2   0 2 0     -5.306780     -2.653390     -2.653390      0.000000
     2   0 1 1      0.000000      0.000000      0.000000      0.000000

  Root   1 singlet b2             0.294221368 a.u.                8.0062 eV
     Dipole Oscillator Strength                    0.0141833591
  Root   2 singlet a2             0.369097480 a.u.               10.0437 eV
     Dipole Oscillator Strength                    0.0000000000
  Root   3 singlet a1             0.387064731 a.u.               10.5326 eV
     Dipole Oscillator Strength                    0.0943340850
  Root   4 singlet b1             0.466992348 a.u.               12.7075 eV
     Dipole Oscillator Strength                    0.0697299030
  Root   5 singlet b1             0.533227682 a.u.               14.5099 eV
     Dipole Oscillator Strength                    0.3933833488
  Root   6 singlet a1             0.652738207 a.u.               17.7619 eV
     Dipole Oscillator Strength                    0.2040140574
  Root   7 singlet a2             0.962204813 a.u.               26.1829 eV
     Dipole Oscillator Strength                    0.0000000000
  Root   8 singlet b2             1.009123713 a.u.               27.4597 eV
     Dipole Oscillator Strength                    0.1040647005
  Root   9 singlet a1             1.018624970 a.u.               27.7182 eV
     Dipole Oscillator Strength                    0.0329845593
  Root  10 singlet b1             1.074907911 a.u.               29.2497 eV
     Dipole Oscillator Strength                    0.1427888057
 Total times  cpu:       19.5s     wall:       15.7s
