============================== echo of input deck ==============================
echo

start co_core

title co_core

memory 1000 mb

geometry units angstrom noautosym nocenter
 O 0       0        0
 C 0       0.00     1.15
end

basis
  * library aug-cc-pvdz
end

dft
  xc b3lyp
end
task dft optimize

dft
  xc beckehandh
end
task dft

tddft
  cis
  ecut -15
  nroots 30
  notriplet
  thresh 1e-04
end
task tddft
================================================================================

         Total DFT energy =     -113.332523468996
@ Step       Energy      Delta E   Gmax     Grms     Xrms     Xmax   Walltime
@ ---- ---------------- -------- -------- -------- -------- -------- --------
@    0    -113.33252347  0.0D+00  0.03640  0.03640  0.00000  0.00000     13.0
         Total DFT energy =     -113.332609504139
         Total DFT energy =     -113.333099312972
@    1    -113.33309931 -5.8D-04  0.00061  0.00061  0.00882  0.01528     36.5
         Total DFT energy =     -113.333099447962
         Total DFT energy =   -113.333099447962
@    2    -113.33309945 -1.3D-07  0.00001  0.00001  0.00015  0.00026     43.8
@    2    -113.33309945 -1.3D-07  0.00001  0.00001  0.00015  0.00026     43.8

 Output coordinates in angstroms (scale by  1.889725989 to convert to a.u.)

  No.       Tag          Charge          X              Y              Z
 ---- ---------------- ---------- -------------- -------------- --------------
    1 O                    8.0000     0.00000000     0.00000000     0.00822230
    2 C                    6.0000     0.00000000     0.00000000     1.14177770

         Total DFT energy =     -112.589218874572

 Vector   21  Occ=0.000000D+00  E= 4.669927D-01

 Vector   22  Occ=0.000000D+00  E= 5.173591D-01

 Vector   23  Occ=0.000000D+00  E= 5.173591D-01

 Vector   24  Occ=0.000000D+00  E= 6.283572D-01

 Vector   25  Occ=0.000000D+00  E= 6.327552D-01

 Vector   26  Occ=0.000000D+00  E= 6.327552D-01

 Vector   27  Occ=0.000000D+00  E= 7.929855D-01

 Vector   28  Occ=0.000000D+00  E= 9.322191D-01

 Vector   29  Occ=0.000000D+00  E= 9.322192D-01

 Vector   30  Occ=0.000000D+00  E= 1.057448D+00

 Vector   31  Occ=0.000000D+00  E= 1.057448D+00

 Vector   32  Occ=0.000000D+00  E= 1.142025D+00

 Vector   33  Occ=0.000000D+00  E= 1.368762D+00

 Vector   34  Occ=0.000000D+00  E= 1.474945D+00

 Vector   35  Occ=0.000000D+00  E= 1.474945D+00

 Vector   36  Occ=0.000000D+00  E= 1.498634D+00

 Vector   37  Occ=0.000000D+00  E= 1.498634D+00

 Vector   38  Occ=0.000000D+00  E= 1.577956D+00

 Vector   39  Occ=0.000000D+00  E= 1.803514D+00

 Vector   40  Occ=0.000000D+00  E= 1.803514D+00

 Vector   41  Occ=0.000000D+00  E= 2.019269D+00

 Vector   42  Occ=0.000000D+00  E= 2.385711D+00

 Vector   43  Occ=0.000000D+00  E= 3.309259D+00

 Vector   44  Occ=0.000000D+00  E= 3.309259D+00

 Vector   45  Occ=0.000000D+00  E= 3.429089D+00

 Vector   46  Occ=0.000000D+00  E= 3.429089D+00

 Vector   47  Occ=0.000000D+00  E= 3.799474D+00

 Vector   48  Occ=0.000000D+00  E= 4.287912D+00

 Vector   49  Occ=0.000000D+00  E= 4.632830D+00

 Vector   50  Occ=0.000000D+00  E= 9.512651D+00

         Total DFT energy =     -112.589218879527

                       DFT Final Molecular Orbital Analysis
                       ------------------------------------

 Vector    1  Occ=2.000000D+00  E=-1.970761D+01

 Vector    2  Occ=2.000000D+00  E=-1.064403D+01

 Vector    3  Occ=2.000000D+00  E=-1.301752D+00

 Vector    4  Occ=2.000000D+00  E=-6.652065D-01

 Vector    5  Occ=2.000000D+00  E=-5.400523D-01

 Vector    6  Occ=2.000000D+00  E=-5.400523D-01

 Vector    7  Occ=2.000000D+00  E=-4.433373D-01

 Vector    8  Occ=0.000000D+00  E= 1.959930D-02

 Vector    9  Occ=0.000000D+00  E= 1.959930D-02

 Vector   10  Occ=0.000000D+00  E= 5.588487D-02

 Vector   11  Occ=0.000000D+00  E= 7.749465D-02

 Vector   12  Occ=0.000000D+00  E= 9.834949D-02

 Vector   13  Occ=0.000000D+00  E= 9.834949D-02

 Vector   14  Occ=0.000000D+00  E= 1.700801D-01

 Vector   15  Occ=0.000000D+00  E= 2.052600D-01

 Vector   16  Occ=0.000000D+00  E= 2.052600D-01

 Vector   17  Occ=0.000000D+00  E= 2.743800D-01

 Vector   18  Occ=0.000000D+00  E= 3.604322D-01

 Vector   19  Occ=0.000000D+00  E= 3.604324D-01

 Vector   20  Occ=0.000000D+00  E= 4.293509D-01

 Vector   21  Occ=0.000000D+00  E= 4.669923D-01

 Vector   22  Occ=0.000000D+00  E= 5.173584D-01

 Vector   23  Occ=0.000000D+00  E= 5.173584D-01

 Vector   24  Occ=0.000000D+00  E= 6.283572D-01

 Vector   25  Occ=0.000000D+00  E= 6.327546D-01

 Vector   26  Occ=0.000000D+00  E= 6.327546D-01

 Vector   27  Occ=0.000000D+00  E= 7.929856D-01

 Vector   28  Occ=0.000000D+00  E= 9.322200D-01

 Vector   29  Occ=0.000000D+00  E= 9.322201D-01

 Vector   30  Occ=0.000000D+00  E= 1.057450D+00

 Vector   31  Occ=0.000000D+00  E= 1.057450D+00

 Vector   32  Occ=0.000000D+00  E= 1.142028D+00

 Vector   33  Occ=0.000000D+00  E= 1.368762D+00

 Vector   34  Occ=0.000000D+00  E= 1.474946D+00

 Vector   35  Occ=0.000000D+00  E= 1.474946D+00

 Vector   36  Occ=0.000000D+00  E= 1.498633D+00

 Vector   37  Occ=0.000000D+00  E= 1.498633D+00

 Vector   38  Occ=0.000000D+00  E= 1.577955D+00

 Vector   39  Occ=0.000000D+00  E= 1.803513D+00

 Vector   40  Occ=0.000000D+00  E= 1.803513D+00

 Vector   41  Occ=0.000000D+00  E= 2.019269D+00

 Vector   42  Occ=0.000000D+00  E= 2.385711D+00

 Vector   43  Occ=0.000000D+00  E= 3.309262D+00

 Vector   44  Occ=0.000000D+00  E= 3.309262D+00

 Vector   45  Occ=0.000000D+00  E= 3.429091D+00

 Vector   46  Occ=0.000000D+00  E= 3.429091D+00

 Vector   47  Occ=0.000000D+00  E= 3.799476D+00

 Vector   48  Occ=0.000000D+00  E= 4.287914D+00

 Vector   49  Occ=0.000000D+00  E= 4.632830D+00

 Vector   50  Occ=0.000000D+00  E= 9.512653D+00

     Multipole analysis of the density
     ---------------------------------

     L   x y z        total         alpha         beta         nuclear
     -   - - -        -----         -----         ----         -------
     0   0 0 0     -0.000000     -7.000000     -7.000000     14.000000

     1   1 0 0      0.000000      0.000000      0.000000      0.000000
     1   0 1 0      0.000000      0.000000      0.000000      0.000000
     1   0 0 1      0.012054     -6.529066     -6.529066     13.070185

     2   2 0 0     -7.687800     -3.843900     -3.843900      0.000000
     2   1 1 0      0.000000      0.000000      0.000000      0.000000
     2   1 0 1     -0.000000     -0.000000     -0.000000      0.000000
     2   0 2 0     -7.687800     -3.843900     -3.843900      0.000000
     2   0 1 1     -0.000000     -0.000000     -0.000000      0.000000

  Root   1 singlet a             19.460735225 a.u.              529.5538 eV
     Dipole Oscillator Strength                    0.0397758433
  Root   2 singlet a             19.460735225 a.u.              529.5538 eV
     Dipole Oscillator Strength                    0.0397758433
  Root   3 singlet a             19.646574833 a.u.              534.6107 eV
     Dipole Oscillator Strength                    0.0019220494
  Root   4 singlet a             19.699785710 a.u.              536.0587 eV
     Dipole Oscillator Strength                    0.0002788664
  Root   5 singlet a             19.699785710 a.u.              536.0587 eV
     Dipole Oscillator Strength                    0.0002788664
  Root   6 singlet a             19.705120207 a.u.              536.2038 eV
     Dipole Oscillator Strength                    0.0002748903
  Root   7 singlet a             19.759162322 a.u.              537.6744 eV
     Dipole Oscillator Strength                    0.0037185229
  Root   8 singlet a             19.782036826 a.u.              538.2968 eV
     Dipole Oscillator Strength                    0.0063796123
  Root   9 singlet a             19.782036826 a.u.              538.2968 eV
     Dipole Oscillator Strength                    0.0063796123
  Root  10 singlet a             19.843657125 a.u.              539.9736 eV
     Dipole Oscillator Strength                    0.0001521863
  Root  11 singlet a             19.923257661 a.u.              542.1397 eV
     Dipole Oscillator Strength                    0.0000000000
  Root  12 singlet a             19.923257833 a.u.              542.1397 eV
     Dipole Oscillator Strength                    0.0000000000
  Root  13 singlet a             19.967185785 a.u.              543.3350 eV
     Dipole Oscillator Strength                    0.0271874103
  Root  14 singlet a             20.046701460 a.u.              545.4987 eV
     Dipole Oscillator Strength                    0.0009164961
  Root  15 singlet a             20.084333338 a.u.              546.5227 eV
     Dipole Oscillator Strength                    0.0046616674
  Root  16 singlet a             20.084333338 a.u.              546.5227 eV
     Dipole Oscillator Strength                    0.0046616674
  Root  17 singlet a             20.169256146 a.u.              548.8336 eV
     Dipole Oscillator Strength                    0.0013926567
  Root  18 singlet a             20.176451200 a.u.              549.0294 eV
     Dipole Oscillator Strength                    0.0012677422
  Root  19 singlet a             20.176451200 a.u.              549.0294 eV
     Dipole Oscillator Strength                    0.0012677422
  Root  20 singlet a             20.239004469 a.u.              550.7316 eV
     Dipole Oscillator Strength                    0.0129414008
  Root  21 singlet a             20.405662443 a.u.              555.2666 eV
     Dipole Oscillator Strength                    0.0000000000
  Root  22 singlet a             20.405662503 a.u.              555.2666 eV
     Dipole Oscillator Strength                    0.0000000000
  Root  23 singlet a             20.487655986 a.u.              557.4977 eV
     Dipole Oscillator Strength                    0.0265543029
  Root  24 singlet a             20.487655986 a.u.              557.4977 eV
     Dipole Oscillator Strength                    0.0265543029
  Root  25 singlet a             20.565555694 a.u.              559.6175 eV
     Dipole Oscillator Strength                    0.0398368992
  Root  26 singlet a             20.851013366 a.u.              567.3852 eV
     Dipole Oscillator Strength                    0.0063928334
  Root  27 singlet a             20.851431525 a.u.              567.3966 eV
     Dipole Oscillator Strength                    0.0453306539
  Root  28 singlet a             20.851431525 a.u.              567.3966 eV
     Dipole Oscillator Strength                    0.0453306539
  Root  29 singlet a             21.018777512 a.u.              571.9503 eV
     Dipole Oscillator Strength                    0.0000000000
  Root  30 singlet a             21.018777621 a.u.              571.9503 eV
     Dipole Oscillator Strength                    0.0000000000
 Total times  cpu:      127.4s     wall:      127.6s
